# vtk DataFile Version 2.0
volume optimal cycles
ASCII
DATASET POLYDATA
POINTS 5002 double
1.0 1.0 1.0
1.0125671910736112 1.2599177989452743 0.9848909717916053
1.0488237097089568 1.5239971313226008 0.973114219876485
1.1072088542956613 1.7983098897421352 0.9651589513000616
1.1868680166603462 2.0885401422061625 0.9617372249104278
1.287557057257908 2.4001544636681382 0.9638060638197575
1.4095706581041882 2.738545613747143 0.9726081698899176
1.5536900616953837 3.109153968487564 0.9897311222754546
1.7211463804529996 3.517569455166498 1.0171865238383704
1.9135962032916782 3.969615009809224 1.0575118553930003
2.133106543293639 4.471410647871953 1.1138989184687214
2.3821462580297044 5.029414948512368 1.190353726717964
2.663580910085269 5.650437904613584 1.291893499664662
2.9806675794712945 6.341615446625255 1.424786877461354
3.3370453308022423 7.110331233006836 1.5968433322113875
3.736715793797584 7.964065218724182 1.8177565221880947
4.184006533877147 8.910140801134848 2.0995032544473453
4.6835074584379015 9.955332873168457 2.4567936192098947
5.23996732507253 11.105288107586523 2.9075570279825036
5.858133453147396 12.363697193313152 3.473430964931164
6.542513103944859 13.731148820534644 4.180191224257708
7.2970301078786335 15.203591512746566 5.058020855645361
8.12454615397512 16.7703400206405 6.141457117196824
9.026214596875775 18.41160095753107 7.4687812209695545
10.000638900189827 20.095576475900295 9.080530965857383
11.042822865168167 21.775358255594956 11.016741042599683
12.142932246511165 23.38606783295416 13.312491205128952
13.284944531581944 24.843035773007234 15.991439360156846
14.445350356308865 26.04219586375566 19.05733294430261
15.592182351318154 26.864168640907042 22.48412518666309
16.68476347622216 27.18347313583823 26.206297329352743
17.674639193181456 26.883605839670707 30.11213496677725
18.508113055511046 25.877105550386755 34.043549090458
19.130568471066404 24.12730309090413 37.805808942047754
19.49230571221626 21.666039591944063 41.18855566798782
19.555040676585282 18.60067370539639 43.9956923837512
19.297722655878932 15.105561068553609 46.07747480547932
18.720211528858897 11.397975590941034 47.35566866513326
17.84377602111624 7.704258411724341 47.8339540885982
16.70823397604436 4.22576124519172 47.590767694436195
15.366498536106455 1.1137575723059996 46.75801524533206
13.877914064784795 -1.541669257408191 45.49332413262051
12.30184766903246 -3.7091436620254266 43.95398203191598
10.69261879564335 -5.404206380694763 42.27805673597419
9.09625949506106 -6.673702328154938 40.57446333442512
7.549064835047904 -7.580828767439819 38.92079736634692
6.0775619957040306 -8.193377576269986 37.36635469792174
4.6994116543386015 -8.575906018003852 35.937697503277114
3.4247928377574848 -8.785421214973166 34.64478035787681
2.257932674251281 -8.869676409303233 33.486466458030264
1.1985649578563953 -8.867139000908752 32.45493260144154
0.24320379492968325 -8.80786914362809 31.538891232001955
-0.6138094172321535 -8.714781678853951 30.725777360647303
-1.3794836451064274 -8.604970693938746 30.003125470511474
-2.061555925814589 -8.490927522719206 29.359360029307098
-2.6680359054411187 -8.381580987130718 28.78418732037266
-3.206883387036673 -8.283145322205419 28.268731651089862
-3.6857884650467665 -8.199789974507171 27.80551796511443
-4.112028738345602 -8.134157219329191 27.38836991984704
-4.492383158216862 -8.087755919008202 27.01226802552016
-4.833086625659796 -8.061257551056052 26.673195246909614
-5.139813265433325 -8.054716658643638 26.367985879421454
-5.417679353166336 -8.067733595392841 26.094185980352442
-5.671259238594508 -8.09957354399998 25.849928917764696
-5.904609409225125 -8.14925253882272 25.633826766978256
-6.121297192199661 -8.215598647231474 25.444876682361247
-6.324431601694234 -8.297294493575032 25.2823805517397
-6.516694590194051 -8.392905839016432 25.1458759043369
-6.70037152145623 -8.50089985467618 25.03507599720241
-6.87738010210007 -8.619655951316146 24.949817127076052
-7.049297325754589 -8.74747147956983 24.890011429270157
-7.217384226621454 -8.882564229688182 24.855603688080038
-7.382608428457271 -9.023073391375199 24.84653096988672
-7.545664624681772 -9.16706044511576 24.86268418816559
-7.7069932453638845 -9.31251131629089 24.903871013724068
-7.86679766346536 -9.457341007114616 24.96977985160355
-8.025060369347516 -9.59940180709551 25.05994491667541
-8.181558600295551 -9.736496050792118 25.173712749971862
-8.335879949950394 -9.866394224747687 25.310210821023535
-8.487438498866178 -9.98685900899009 25.468319147485495
-8.635491998724445 -10.095675561508854 25.646646116868943
-8.779160605346807 -10.19068801124862 25.8435098963007
-8.917447586043433 -10.269841718314032 26.056926941213582
-9.049262322453648 -10.331230400423346 26.28460913724767
-9.173445790127639 -10.373146733981205 26.523971007142922
-9.288798522600217 -10.394134549356005 26.772148166874
-9.39411086600061 -10.393040295978023 27.026027813171908
-9.488195109657807 -10.369061103768884 27.282291472411426
-9.569918852055649 -10.32178656536531 27.53746956079204
-9.638238746753759 -10.251231356181817 27.788006539403597
-9.692233588787287 -10.157856031653175 28.030334655223456
-9.731135568439996 -10.042573807832428 28.26095351463323
-9.75435845428244 -9.906741831277387 28.476512120572103
-9.76152148486207 -9.752136335752974 28.67388959520141
-9.752467855686138 -9.580912097508294 28.85027066903276
-9.727276884010724 -9.395547646688428 29.003212181102644
-9.686269208100848 -9.198778667546435 29.13069730558643
-9.630004710973637 -8.99352282464918 29.231174964315287
-9.559273225098945 -8.782799802895402 29.30358283439696
-9.475078443888926 -8.569650591238961 29.347353422793393
-9.378615807236292 -8.357059955292334 29.362403750125736
-9.271245414095103 -8.147885652496157 29.349110161296483
-9.154461223621063 -7.9447972993151685 29.30827057402702
-9.02985792465637 -7.750226981686352 29.241057028128672
-8.899096877744899 -7.566332798725853 29.148961680644703
-8.763872469854183 -7.394975635801571 29.033739409830115
-8.62588008258804 -7.237708654743519 28.89734997699468
-8.486786678207933 -7.095778324391907 28.741902301934715
-8.348204775206579 -6.97013532816708 28.56960289749303
-8.21167033756225 -6.861453387428886 28.382709944928035
-8.078624858191048 -6.770153920216593 28.183493930605493
-7.950401693025472 -6.696434489604007 27.974205250504056
-7.828216508768657 -6.640299150461801 27.757048752343707
-7.713161551402328 -6.6015890407421765 27.534164841780942
-7.606203326526067 -6.580011847786492 27.3076165326247
-7.508183205705862 -6.575169080621425 27.079381665383696
-7.419820431782905 -6.586580371322354 26.851349441223164
-7.341716985457103 -6.613704294985297 26.625320403751765
-7.274363789502034 -6.655955428137676 26.403009032245603
-7.218147759629557 -6.712717554833328 26.186048171160362
-7.173359256604486 -6.783353078100969 25.97599459842654
-7.140199547714559 -6.867208805023377 25.77433511813148
-7.118787943019101 -6.963618351806454 25.58249264370573
-7.109168329777879 -7.071901467174411 25.401831810309336
-7.111314884880998 -7.191360605096993 25.233663716807047
-7.125136798595897 -7.32127509784968 25.079249447574114
-7.150481892891416 -7.460893293835397 24.939802063029063
-7.187139063970071 -7.609423036812271 24.81648677714324
-7.2348395218862835 -7.766020878640298 24.710419063101835
-7.29325684103342 -7.929780439855617 24.62266044842902
-7.36200587483407 -8.09972036369908 24.55421178249745
-7.440640627230938 -8.274772350868231 24.506003787167085
-7.528651213564747 -8.453769814087995 24.47888474045119
-7.625460084972526 -8.635437751931452 24.473605198895367
-7.730417734055245 -8.818384506737768 24.49079974203088
-7.84279814528907 -9.001096136558507 24.530965826656686
-7.961794300908615 -9.181934188241879 24.594439973700265
-8.086514100418565 -9.359137698229908 24.681371678253296
-8.215977097229187 -9.530830257487114 24.791695633824517
-8.34911249589497 -9.695032943624042 24.925103091168573
-8.484758883768015 -9.849683832324905 25.081013422005856
-8.621666186313552 -9.992664637756663 25.258547214913317
-8.758500329906836 -10.121834786255477 25.456502475033705
-8.893851063358824 -10.235072892579312 25.673335705465288
-9.02624332372672 -10.330325184225982 25.90714978566124
-9.154152428303439 -10.405659917849883 26.155690597318504
-9.27602323030703 -10.459326276312387 26.416354247895796
-9.390293191137946 -10.48981566274223 26.68620647792422
-9.495419101735237 -10.495922769690058 26.96201539310833
-9.589906939037515 -10.476803357791619 27.240298034707195
-9.672344085493664 -10.432025394696193 27.51738051211316
-9.741432889356588 -10.36161014327769 27.789470514628828
-9.796024323998095 -10.266059996885176 28.052740064073177
-9.835150339954886 -10.146370363633752 28.30341545463104
-9.858053416681452 -10.004023694403912 28.537870550701175
-9.864211830256409 -9.840964786260331 28.75271907493253
-9.853359269062999 -9.659557694036009 28.944901298132816
-9.82549765209314 -9.462525838147302 29.11176069052181
-9.780902322972906 -9.252878080275638 29.251106618666874
-9.720119184992987 -9.033824525173245 29.361260037018802
-9.643953777242798 -8.808686490498664 29.441080246601988
-9.553452732747447 -8.580805396415876 29.48997206249472
-9.449878468547956 -8.353455237489566 29.507874015834542
-9.334678300749557 -8.129762834450705 29.495229386828793
-9.209449428126728 -7.912639289255423 29.452942814306706
-9.075901369847408 -7.704725081462593 29.38232588017032
-8.935817471921998 -7.508350160668037 29.285035390199695
-8.791017020016477 -7.325509320553309 29.163008073697835
-8.64331932954581 -7.15785218117692 29.018395145938687
-8.494510950145296 -7.0066863277155855 28.85349968604057
-8.346316846435805 -6.872991595750669 28.670719157190526
-8.200376126059263 -6.757443165357875 28.47249471438667
-8.05822260211518 -6.6604410135181045 28.261268275683424
-7.921270218676776 -6.582143343505397 28.039447729209954
-7.7908031478491075 -6.522501817521036 27.809380144582335
-7.667970192147293 -6.481296718584011 27.573332470534126
[...]
CELL_DATA 0
SCALARS colors float 1
LOOKUP_TABLE color_table
LOOKUP_TABLE color_table 3
1 0.0 0 1.0
0.8 0.8 0.8 1.0
1.0 1.0 1.0 1.0
